/*--------------------------------*- C++ -*----------------------------------*\
  =========                 |
  \\      /  F ield         | OpenFOAM: The Open Source CFD Toolbox
   \\    /   O peration     | Website:  https://openfoam.org
    \\  /    A nd           | Version:  12
     \\/     M anipulation  |
\*---------------------------------------------------------------------------*/
FoamFile
{
    format      ascii;
    class       volScalarField;
    location    "0";
    object      p_rgh;
}
// * * * * * * * * * * * * * * * * * * * * * * * * * * * * * * * * * * * * * //

dimensions      [1 -1 -2 0 0 0 0];

internalField   nonuniform List<scalar> 
70950
(
101321.161271
101321.104817
101321.024871
101320.954078
101320.877694
101320.795746
101320.708253
101320.615229
101320.516691
101320.412653
101320.303129
101320.188134
101320.067681
101319.941782
101319.810448
101319.673691
101319.531518
101319.383937
101319.230954
101319.072575
101318.908804
101318.739644
101318.565098
101318.385167
101318.199854
101318.009159
101317.813084
101317.61163
101317.404797
101317.192587
101316.974999
101316.752036
101316.523698
101316.289986
101316.050901
101315.806446
101315.55662
101315.301426
101315.040866
101314.77494
101321.161577
101321.105172
101321.025022
101320.954158
101320.877737
101320.795766
101320.708257
101320.615222
101320.516676
101320.412632
101320.303104
101320.188107
101320.067652
101319.941753
101319.81042
101319.673663
101319.531491
101319.383912
101319.230932
101319.072555
101318.908785
101318.739627
101318.565083
101318.385154
101318.199843
101318.00915
101317.813076
101317.611623
101317.404791
101317.192582
101316.974995
101316.752032
101316.523695
101316.289983
101316.050899
101315.806444
101315.556619
101315.301426
101315.040865
101314.77494
101321.161626
101321.105323
101321.025129
101320.954231
101320.877781
101320.795786
101320.708258
101320.615209
101320.516651
101320.4126
101320.303066
101320.188065
101320.067609
101319.94171
101319.810378
101319.673623
101319.531454
101319.383878
101319.2309
101319.072526
101318.90876
101318.739605
101318.565063
101318.385137
101318.199828
101318.009137
101317.813065
101317.611614
101317.404784
101317.192575
101316.97499
101316.752028
101316.523691
101316.289981
101316.050897
101315.806442
101315.556618
101315.301425
101315.040865
101314.77494
101321.161632
101321.105369
101321.025182
101320.954275
101320.877806
101320.795792
101320.708245
101320.615181
101320.516612
101320.412551
101320.303013
101320.188008
101320.067551
101319.941653
101319.810323
101319.673571
101319.531406
101319.383833
101319.23086
101319.07249
101318.908728
101318.739577
101318.565039
101318.385116
101318.19981
101318.009121
101317.813052
101317.611603
101317.404774
101317.192568
101316.974984
101316.752023
101316.523687
101316.289977
101316.050895
101315.80644
101315.556616
101315.301424
101315.040864
101314.774939
101321.161633
101321.105383
101321.025201
101320.95429
101320.877808
101320.795776
101320.708213
101320.615133
101320.516552
101320.412483
101320.302939
101320.187933
101320.067476
101319.941579
101319.810253
101319.673506
101319.531345
101319.383778
101319.23081
101319.072446
101318.908689
101318.739543
101318.565009
101318.385091
101318.199788
101318.009103
101317.813037
101317.61159
101317.404764
101317.192559
101316.974976
101316.752017
101316.523682
101316.289973
101316.050892
101315.806438
101315.556615
101315.301423
101315.040864
101314.774939
101321.161634
101321.105386
101321.025202
101320.954281
101320.877784
101320.795734
101320.708153
101320.615059
101320.516467
101320.41239
101320.302843
101320.187836
101320.067381
101319.941488
101319.810167
101319.673426
101319.531273
101319.383713
101319.230752
101319.072394
101318.908644
101318.739503
101318.564975
101318.385061
101318.199763
101318.009082
101317.813019
101317.611576
101317.404752
101317.192549
101316.974968
101316.752011
101316.523677
101316.289969
101316.050888
101315.806436
101315.556613
101315.301421
101315.040863
101314.774939
101321.161634
101321.105385
101321.025187
101320.954248
101320.87773
101320.795659
101320.708059
101320.614951
101320.51635
101320.412268
101320.30272
101320.187715
101320.067265
101319.941379
101319.810065
101319.673333
101319.531188
101319.383637
101319.230684
101319.072335
101318.908592
101318.739458
101318.564937
101318.385028
101318.199735
101318.009059
101317.813
101317.611559
101317.404738
101317.192538
101316.974959
101316.752003
101316.523671
101316.289965
101316.050885
101315.806433
101315.556611
101315.30142
101315.040862
101314.774939
101321.161634
101321.10538
101321.025157
101320.954187
101320.877639
101320.795543
101320.707924
101320.614803
101320.516195
101320.412112
101320.302567
101320.187568
101320.067126
101319.941249
101319.809946
101319.673225
101319.531091
101319.38355
101319.230608
101319.072268
101318.908534
101318.739408
101318.564894
101318.384992
101318.199705
101318.009033
101317.812978
101317.611541
101317.404724
101317.192526
101316.974949
101316.751995
101316.523665
101316.28996
101316.050881
101315.80643
101315.556608
101315.301418
101315.040861
101314.774938
101321.161633
101321.10537
101321.025102
101320.954086
101320.877499
101320.795374
101320.707737
101320.614608
101320.515998
101320.411919
101320.302381
101320.187393
101320.066963
101319.9411
101319.809811
101319.673102
101319.530982
101319.383454
101319.230523
101319.072194
101318.90847
101318.739353
101318.564847
101318.384952
101318.199671
101318.009005
101317.812955
101317.611522
101317.404708
101317.192513
101316.974939
101316.751987
101316.523658
101316.289954
101316.050876
101315.806427
101315.556606
101315.301417
101315.04086
101314.774938
101321.161632
101321.105347
101321.025003
101320.953921
101320.877289
101320.795137
101320.707489
101320.614358
101320.515755
101320.411687
101320.302163
101320.187191
101320.066777
101319.940931
101319.809659
101319.672967
101319.530862
101319.383348
101319.230431
101319.072114
101318.908401
101318.739294
101318.564797
101318.38491
101318.199635
101318.008975
101317.81293
101317.611502
101317.404691
101317.192499
101316.974928
101316.751978
101316.523651
101316.289949
101316.050872
101315.806423
101315.556604
101315.301415
101315.040859
101314.774938
101321.16163
101321.105297
101321.024817
101320.953654
101320.876982
101320.794816
101320.707169
101320.61405
101320.515463
101320.411416
101320.301913
101320.186962
101320.066571
101319.940745
101319.809493
101319.67282
101319.530732
101319.383234
101319.230332
101319.072029
101318.908328
101318.739232
101318.564743
101318.384865
101318.199598
101318.008944
101317.812904
101317.61148
101317.404673
101317.192485
101316.974916
101316.751969
101316.523644
101316.289943
101316.050868
101315.80642
101315.556601
101315.301413
101315.040858
101314.774937
101321.161622
101321.105168
101321.024456
101320.953229
101320.87655
101320.794398
101320.706776
101320.613685
101320.515128
101320.41111
101320.301636
101320.186713
101320.066347
101319.940545
101319.809315
101319.672663
101319.530594
101319.383115
101319.230228
101319.071939
101318.908251
101318.739166
101318.564688
101318.384818
101318.199559
101318.008911
101317.812877
101317.611458
101317.404655
101317.19247
101316.974904
101316.751959
101316.523636
101316.289937
101316.050863
101315.806416
101315.556598
101315.301411
101315.040857
101314.774937
101321.161555
101321.104804
101321.023762
101320.952602
101320.875984
101320.793889
101320.706318
101320.613274
101320.514759
101320.410779
101320.301339
101320.186447
101320.06611
101319.940335
101319.80913
101319.6725
101319.530452
101319.38299
101319.230121
101319.071847
101318.908172
101318.739099
101318.564631
101318.38477
101318.199519
101318.008878
101317.812849
101317.611435
101317.404637
101317.192455
101316.974892
101316.751949
101316.523628
101316.28993
101316.050858
101315.806412
101315.556596
101315.30141
101315.040856
101314.774936
101321.160869
101321.10388
101321.039607
101320.951867
101320.875337
101320.793324
101320.705824
101320.612837
101320.514372
101320.410434
101320.301032
101320.186174
101320.065868
101319.940121
101319.808941
101319.672334
101319.530307
101319.382864
101319.230012
101319.071753
101318.908091
101318.739031
101318.564573
101318.384722
101318.199478
101318.008844
101317.812822
101317.611412
101317.404618
101317.19244
101316.97488
101316.751939
101316.52362
101316.289924
101316.050853
101315.806409
101315.556593
101315.301408
101315.040855
101314.774936
101321.167327
101321.11016
101321.038526
101320.951061
101320.874678
101320.79276
101320.705332
101320.612404
101320.513987
101320.410092
101320.300727
101320.185902
101320.065626
101319.939907
101319.808752
101319.672168
101319.530162
101319.382738
101319.229903
101319.071659
101318.908011
101318.738963
101318.564516
101318.384673
101318.199437
101318.00881
101317.812794
101317.611389
101317.404599
101317.192425
101316.974867
101316.751929
101316.523612
101316.289918
101316.050848
101315.806405
101315.55659
101315.301406
101315.040854
101314.774936
101321.447352
101321.444279
101321.435936
101321.421918
101321.402413
101321.377421
101321.346943
101321.310983
101321.269544
101321.222624
101321.169318
101321.108931
101321.037654
101320.950407
101320.874111
101320.792257
101320.704882
101320.612001
101320.513625
101320.409766
101320.300435
101320.18564
101320.065392
101319.939699
101319.808568
101319.672006
101319.53002
101319.382615
101319.229795
101319.071567
101318.907932
101318.738895
101318.564459
101318.384625
101318.199397
101318.008777
101317.812766
101317.611367
101317.404581
101317.192409
101316.974855
101316.75192
101316.523605
101316.289912
101316.050844
101315.806401
101315.556588
101315.301404
101315.040853
101314.774935
101321.447338
101321.443599
101321.43527
101321.420897
101321.401043
101321.375702
101321.344876
101321.308567
101321.266764
101321.219404
101321.166451
101321.101078
101321.037224
101320.949987
101320.873685
101320.791849
101320.704501
101320.611647
101320.513299
101320.409468
101320.300163
101320.185395
101320.065171
101319.939501
101319.808392
101319.671851
101319.529883
101319.382495
101319.229692
101319.071477
101318.907855
101318.73883
101318.564403
101318.384579
101318.199358
101318.008744
101317.812739
101317.611345
101317.404562
101317.192395
101316.974843
101316.75191
101316.523597
101316.289906
101316.050839
101315.806398
101315.556585
101315.301402
101315.040851
101314.774935
101321.447303
101321.443462
101321.433608
101321.418849
101321.398297
101321.372249
101321.34072
101321.30371
101321.26121
101321.213215
101321.159797
101321.101078
101321.020505
101320.949706
101320.873376
101320.791535
101320.704191
101320.611348
101320.513016
101320.409203
101320.299919
101320.18517
101320.064967
101319.939317
101319.808227
101319.671704
101319.529754
101319.382382
101319.229593
101319.071392
101318.907782
101318.738767
101318.56435
101318.384534
101318.199321
101318.008713
101317.812713
101317.611323
101317.404545
101317.19238
101316.974832
101316.751901
101316.52359
101316.2899
101316.050834
101315.806394
101315.556582
101315.3014
101315.04085
101314.774935
101321.447267
101321.443349
101321.433597
101321.414604
101321.392613
101321.365163
101321.332246
101321.293858
101321.250001
101321.200692
101321.145967
101321.085865
101321.020437
101320.949546
101320.87317
101320.791304
101320.703948
101320.611104
101320.512777
101320.408974
101320.299702
101320.184969
101320.064783
101319.939149
101319.808076
101319.671568
101319.529633
101319.382276
101319.2295
101319.071311
101318.907713
101318.738708
101318.5643
101318.384491
101318.199285
101318.008683
101317.812688
101317.611303
101317.404528
101317.192367
101316.974821
101316.751892
101316.523583
101316.289895
101316.05083
101315.806391
101315.55658
101315.301399
101315.040849
101314.774934
101321.447235
101321.443318
101321.433582
101321.414682
101321.392709
101321.365258
101321.332335
101321.293947
101321.250097
101321.200801
101321.146078
101321.085951
101321.020426
101320.949462
101320.873037
101320.791138
101320.703761
101320.610907
101320.512578
101320.408779
101320.299515
101320.184792
101320.064618
101319.938998
101319.807938
101319.671444
101319.529523
101319.382178
101319.229414
101319.071236
101318.907648
101318.738652
101318.564252
101318.384451
101318.199251
101318.008655
101317.812665
101317.611283
101317.404512
101317.192354
101316.97481
101316.751883
101316.523576
101316.289889
101316.050826
101315.806388
101315.556578
101315.301397
101315.040848
101314.774934
101321.447209
101321.443295
101321.433577
101321.41472
101321.392775
101321.365338
101321.33242
101321.294033
101321.250188
101321.200894
101321.146165
101321.086011
101321.020434
101320.949419
101320.87295
101320.791018
101320.70362
101320.610752
101320.512416
101320.408616
101320.299355
101320.184639
101320.064473
101319.938863
101319.807815
101319.671333
101319.529422
101319.382089
101319.229336
101319.071168
101318.907588
101318.738601
101318.564208
101318.384413
101318.199219
101318.008628
101317.812643
101317.611265
101317.404497
101317.192342
101316.9748
101316.751875
101316.523569
101316.289884
101316.050822
101315.806385
101315.556575
101315.301396
101315.040848
101314.774934
101321.447191
101321.44328
101321.433572
101321.414736
101321.392814
101321.365397
101321.332492
101321.294111
101321.250268
101321.200973
101321.146235
101321.08606
101321.020449
101320.949396
101320.872893
101320.790933
101320.703513
101320.61063
101320.512285
101320.408481
101320.299221
101320.184508
101320.064348
101319.938746
101319.807706
101319.671233
101319.529332
101319.382008
101319.229264
101319.071105
101318.907533
101318.738553
101318.564168
101318.384379
101318.19919
101318.008604
101317.812622
101317.611248
101317.404483
101317.19233
101316.974791
101316.751868
101316.523563
101316.289879
101316.050818
101315.806382
101315.556573
101315.301394
101315.040847
101314.774933
101321.44718
101321.44327
101321.433564
101321.414736
101321.392833
101321.365436
101321.332547
101321.294176
101321.250337
101321.20104
101321.146293
101321.086102
101321.020467
101320.949387
101320.872857
101320.790873
101320.703433
101320.610536
101320.512181
101320.408372
101320.299109
101320.184398
101320.064242
101319.938644
101319.807611
101319.671146
101319.529253
101319.381936
101319.2292
101319.071049
101318.907484
101318.738511
101318.564131
101318.384347
101318.199164
101318.008581
101317.812604
101317.611232
101317.40447
101317.19232
101316.974782
101316.751861
101316.523558
101316.289875
101316.050815
101315.80638
101315.556571
101315.301393
101315.040846
101314.774933
101321.447175
101321.443263
101321.433553
101321.414716
101321.392837
101321.365459
101321.332586
101321.294228
101321.250395
101321.201097
101321.146344
101321.08614
101321.020488
101320.949386
101320.872835
101320.790831
101320.703374
101320.610464
101320.512099
101320.408283
101320.299018
101320.184306
101320.064152
101319.938558
101319.80753
101319.67107
101319.529183
101319.381874
101319.229144
101319.070999
101318.90744
101318.738472
101318.564098
101318.384319
101318.199139
101318.008561
101317.812587
101317.611218
101317.404459
101317.19231
101316.974775
101316.751855
101316.523553
101316.289871
101316.050812
101315.806377
101315.55657
101315.301392
101315.040845
101314.774933
101321.447174
101321.443257
101321.433539
101321.414655
101321.392837
101321.365478
101321.332617
101321.294269
101321.250444
101321.201148
101321.14639
101321.086176
101321.02051
101320.949392
101320.872824
101320.790804
101320.703333
101320.61041
101320.512036
101320.408213
101320.298944
101320.184231
101320.064077
101319.938486
101319.807461
101319.671005
101319.529124
101319.381819
101319.229095
101319.070955
101318.907402
101318.738439
101318.564068
101318.384294
101318.199118
101318.008543
101317.812571
101317.611206
101317.404448
101317.192301
101316.974768
101316.751849
101316.523548
101316.289867
101316.050809
101315.806375
101315.556568
101315.30139
101315.040845
101314.774933
101321.447164
101321.443245
101321.433546
101321.418929
101321.392886
101321.365503
101321.332644
101321.294304
101321.250485
101321.201192
101321.146432
101321.086211
101321.020534
101320.949404
101320.872822
101320.790788
101320.703304
101320.61037
101320.511988
101320.408159
101320.298886
101320.18417
101320.064016
101319.938426
101319.807403
101319.670951
101319.529073
101319.381772
101319.229053
101319.070917
101318.907368
101318.738409
101318.564043
101318.384272
101318.199099
101318.008527
101317.812558
101317.611194
101317.404439
101317.192294
101316.974761
101316.751844
101316.523544
101316.289864
101316.050806
101315.806373
101315.556567
101315.301389
101315.040844
101314.774932
101321.443312
101321.433695
101321.418861
101321.392882
101321.365516
101321.332667
101321.294334
101321.250521
101321.201231
101321.146472
101321.086247
101321.020562
101320.949421
101320.872827
101320.790782
101320.703287
101320.610344
101320.511954
101320.408119
101320.298841
101320.184123
101320.063967
101319.938377
101319.807355
101319.670905
101319.52903
101319.381733
101319.229017
101319.070884
101318.907339
101318.738383
101318.56402
101318.384252
101318.199082
101318.008513
101317.812546
101317.611184
101317.40443
101317.192287
101316.974756
101316.751839
101316.52354
101316.289861
101316.050804
101315.806371
101315.556565
101315.301389
101315.040843
101314.774932
101321.443185
101321.433338
101321.418846
101321.392878
101321.365527
101321.332689
101321.294364
101321.250556
101321.201269
101321.14651
101321.086282
101321.020592
101320.949443
101320.87284
101320.790785
101320.70328
101320.610328
101320.51193
101320.408089
101320.298807
101320.184086
101320.063929
101319.938338
101319.807317
101319.670868
101319.528995
101319.3817
101319.228986
101319.070857
101318.907314
101318.738362
101318.564001
101318.384236
101318.199068
101318.0085
101317.812535
101317.611175
101317.404423
101317.192281
101316.974751
101316.751835
101316.523537
101316.289859
101316.050802
101315.80637
101315.556564
101315.301388
101315.040843
101314.774932
101321.443322
101321.433001
101321.418846
101321.392874
101321.365542
101321.332716
101321.294397
101321.250593
101321.201308
101321.146547
101321.086318
101321.020623
101320.949468
101320.872858
101320.790794
101320.703281
101320.610321
101320.511917
101320.40807
101320.298783
101320.184059
101320.063899
101319.938308
101319.807287
101319.670839
101319.528966
101319.381673
101319.228961
101319.070834
101318.907294
101318.738343
101318.563985
101318.384222
101318.199056
101318.00849
101317.812526
101317.611168
101317.404417
101317.192275
101316.974746
101316.751832
101316.523534
101316.289856
101316.0508
101315.806368
101315.556563
101315.301387
101315.040843
101314.774932
101321.443241
101321.434604
101321.418857
101321.392847
101321.36557
101321.332753
101321.294437
101321.250633
101321.201348
101321.146587
101321.086354
101321.020656
101320.949496
101320.872879
101320.790809
101320.703289
101320.610322
101320.511911
101320.408059
101320.298767
101320.18404
101320.063878
101319.938285
101319.807263
101319.670815
101319.528944
101319.381652
101319.228941
101319.070815
101318.907277
101318.738328
101318.563971
101318.38421
101318.199045
101318.008481
101317.812519
101317.611162
101317.404411
101317.192271
101316.974743
101316.751829
101316.523532
101316.289854
101316.050799
101315.806367
101315.556562
101315.301386
101315.040842
101314.774932
101321.442975
101321.433965
101321.418502
101321.398523
101321.365656
101321.332808
101321.294484
101321.250678
101321.201391
101321.146627
101321.086392
101321.02069
101320.949525
101320.872903
101320.790827
101320.703301
101320.610329
101320.511912
101320.408055
101320.298759
101320.184028
101320.063864
101319.938269
101319.807246
101319.670798
101319.528926
101319.381635
101319.228925
101319.070801
101318.907263
101318.738316
101318.56396
101318.3842
101318.199037
101318.008474
101317.812512
101317.611156
101317.404407
101317.192267
101316.974739
101316.751826
101316.52353
101316.289853
101316.050797
101315.806366
101315.556561
101315.301386
101315.040842
101314.774932
101321.433943
101321.418733
101321.398495
101321.365692
101321.332854
101321.294531
101321.250724
101321.201435
101321.146669
101321.086431
101321.020725
101320.949556
101320.872929
101320.790848
101320.703317
101320.610339
101320.511918
101320.408056
101320.298757
101320.184022
101320.063856
101319.938259
101319.807234
101319.670785
101319.528914
101319.381622
101319.228913
101319.070789
101318.907252
101318.738306
101318.563951
101318.384192
101318.19903
101318.008467
101317.812507
101317.611152
101317.404403
101317.192264
101316.974737
101316.751824
101316.523528
101316.289851
101316.050796
101315.806365
101315.556561
101315.301385
101315.040842
101314.774932
101321.43373
101321.418256
101321.39852
101321.365727
101321.332897
101321.294578
101321.25077
101321.20148
101321.146711
101321.08647
101321.02076
101320.949587
101320.872956
101320.790871
101320.703336
101320.610353
101320.511928
101320.408062
101320.298759
101320.184022
101320.063852
101319.938253
101319.807227
101319.670777
101319.528905
101319.381613
101319.228904
101319.07078
101318.907244
101318.738298
101318.563944
101318.384186
101318.199024
101318.008463
101317.812503
101317.611148
101317.4044
101317.192261
101316.974735
101316.751822
101316.523527
101316.28985
101316.050795
101315.806364
101315.55656
101315.301385
101315.040841
101314.774932
101321.434013
101321.417812
101321.398558
101321.365757
101321.332937
101321.294623
101321.250815
101321.201523
101321.146752
101321.086508
101321.020795
101320.949619
101320.872985
101320.790896
101320.703356
101320.61037
101320.511941
101320.408071
101320.298765
101320.184024
101320.063852
101319.938251
101319.807224
101319.670773
101319.528899
101319.381607
101319.228898
101319.070774
101318.907238
101318.738292
101318.563939
101318.384181
101318.19902
101318.008459
101317.8125
101317.611145
101317.404398
101317.192259
101316.974733
101316.751821
101316.523525
101316.289849
101316.050794
101315.806364
101315.55656
101315.301385
101315.040841
101314.774932
101321.433882
101321.420194
101321.398602
101321.365749
101321.332977
101321.294667
101321.250858
101321.201564
101321.146791
101321.086544
101321.020829
101320.949651
101320.873013
101320.790921
101320.703378
101320.610388
101320.511955
101320.408083
101320.298774
101320.18403
101320.063856
101319.938253
101319.807224
101319.670771
101319.528897
101319.381604
101319.228894
101319.07077
101318.907234
101318.738288
101318.563935
101318.384177
101318.199017
101318.008456
101317.812497
101317.611143
101317.404396
101317.192258
101316.974732
101316.75182
101316.523524
101316.289848
101316.050794
101315.806363
101315.556559
101315.301385
101315.040841
101314.774931
101321.433423
101321.419293
101321.398145
101321.372797
101321.33306
101321.294714
101321.250897
101321.2016
101321.146826
101321.086579
101321.020862
101320.949681
101320.873041
101320.790946
101320.7034
101320.610408
101320.511972
101320.408096
101320.298784
101320.184039
101320.063862
101319.938257
101319.807226
101319.670772
101319.528897
101319.381603
101319.228892
101319.070768
101318.907232
101318.738286
101318.563933
101318.384175
101318.199015
101318.008454
101317.812495
101317.611141
101317.404394
101317.192257
101316.974731
101316.751819
101316.523524
101316.289848
101316.050793
101315.806363
101315.556559
101315.301384
101315.040841
101314.774931
101321.419268
101321.398408
101321.372741
101321.33307
101321.294738
101321.250925
101321.20163
101321.146857
101321.086609
101321.020892
101320.949711
101320.873069
101320.790971
101320.703423
101320.610428
101320.51199
101320.408112
101320.298797
101320.184049
101320.06387
101319.938263
101319.80723
101319.670775
101319.528898
101319.381603
101319.228892
101319.070767
101318.907231
101318.738285
101318.563932
101318.384174
101318.199013
101318.008453
101317.812494
101317.61114
101317.404393
101317.192256
101316.97473
101316.751818
101316.523523
101316.289847
101316.050793
101315.806363
101315.556559
101315.301384
101315.040841
101314.774931
101321.41882
101321.397709
101321.372715
101321.333065
101321.294748
101321.250943
101321.201653
101321.146883
101321.086637
101321.020921
101320.949739
101320.873096
101320.790997
101320.703447
101320.610449
101320.512008
101320.408128
101320.298811
101320.18406
101320.063879
101319.938271
101319.807236
101319.670779
101319.528902
101319.381606
101319.228894
101319.070768
101318.907231
101318.738285
101318.563931
101318.384173
101318.199013
101318.008452
101317.812494
101317.61114
101317.404393
101317.192255
101316.974729
101316.751818
101316.523523
101316.289847
101316.050793
101315.806363
101315.556559
101315.301384
101315.040841
101314.774931
101321.41928
101321.397563
101321.372703
101321.333058
101321.294751
101321.250956
101321.201673
101321.146907
101321.086663
101321.020948
101320.949766
101320.873122
101320.791022
101320.70347
101320.610471
101320.512028
101320.408145
101320.298826
101320.184073
101320.06389
101319.93828
101319.807244
101319.670785
101319.528906
101319.381609
101319.228896
101319.07077
101318.907232
101318.738285
101318.563932
101318.384173
101318.199013
101318.008452
101317.812493
101317.611139
101317.404392
101317.192255
101316.974729
101316.751818
101316.523523
101316.289847
101316.050793
101315.806363
101315.556559
101315.301384
101315.040841
101314.774931
101321.41901
101321.400213
101321.372702
101321.333041
101321.29475
101321.250966
101321.20169
101321.146928
101321.086687
101321.020973
101320.949792
101320.873148
101320.791047
101320.703494
101320.610493
101320.512048
101320.408163
101320.298842
101320.184087
101320.063902
101319.93829
101319.807252
101319.670792
101319.528912
101319.381614
101319.2289
101319.070773
101318.907234
101318.738287
101318.563933
101318.384174
101318.199013
101318.008452
101317.812493
101317.611139
101317.404393
101317.192255
101316.974729
101316.751818
101316.523523
101316.289847
101316.050793
101315.806362
101315.556559
101315.301384
101315.040841
101314.774931
101321.418692
101321.399086
101321.372417
101321.332984
101321.294752
101321.250981
101321.201709
101321.14695
101321.086712
101321.020999
101320.949818
101320.873174
101320.791073
101320.703518
101320.610516
101320.512069
101320.408182
101320.298859
101320.184102
101320.063915
101319.938301
101319.807262
101319.6708
101319.528918
101319.381619
101319.228904
101319.070776
101318.907237
101318.738289
101318.563934
101318.384175
101318.199014
101318.008453
101317.812494
101317.61114
101317.404393
101317.192255
101316.974729
101316.751818
101316.523523
101316.289847
101316.050793
101315.806363
101315.556559
101315.301384
101315.040841
101314.774931
101321.398705
101321.372007
101321.34137
101321.294808
101321.251007
101321.201732
101321.146974
101321.086737
101321.021025
101320.949845
101320.873201
101320.791099
101320.703543
101320.610539
101320.512091
101320.408202
101320.298877
101320.184118
101320.063929
101319.938313
101319.807272
101319.670809
101319.528926
101319.381625
101319.228909
101319.07078
101318.90724
101318.738292
101318.563936
101318.384177
101318.199015
101318.008454
101317.812495
101317.61114
101317.404393
101317.192255
101316.97473
101316.751818
101316.523523
101316.289847
101316.050793
101315.806363
101315.556559
101315.301384
101315.040841
101314.774931
101321.398146
101321.371905
101321.341309
101321.294813
101321.251025
101321.201753
101321.146997
101321.086762
101321.021052
101320.949872
101320.873228
101320.791125
101320.703569
101320.610563
101320.512113
101320.408222
101320.298895
101320.184134
101320.063944
101319.938325
101319.807283
101319.670818
101319.528934
101319.381632
101319.228915
101319.070785
101318.907244
101318.738295
101318.563939
101318.384179
101318.199017
101318.008455
101317.812496
101317.611141
101317.404394
101317.192256
101316.97473
101316.751818
101316.523523
101316.289847
101316.050793
101315.806363
101315.556559
101315.301384
101315.040841
101314.774931
101321.399104
101321.371473
101321.341303
101321.294818
101321.25104
101321.201774
101321.147022
101321.086789
101321.02108
101320.9499
101320.873256
101320.791153
101320.703595
101320.610588
101320.512136
101320.408244
101320.298914
101320.184152
101320.063959
101319.938339
101319.807294
101319.670828
101319.528942
101319.381639
101319.228921
101319.07079
101318.907248
101318.738298
101318.563942
101318.384181
101318.199019
101318.008457
101317.812497
101317.611142
101317.404395
101317.192257
101316.97473
101316.751819
101316.523524
101316.289848
101316.050793
101315.806363
101315.556559
101315.301384
101315.040841
101314.774931
101321.398791
101321.374413
101321.341316
101321.294823
101321.251056
101321.201797
101321.147048
101321.086817
101321.021108
101320.949929
101320.873285
101320.791181
101320.703622
101320.610613
101320.51216
101320.408265
101320.298934
101320.184169
101320.063975
101319.938353
101319.807307
101319.670839
101319.528951
101319.381647
101319.228927
101319.070795
101318.907253
101318.738302
101318.563945
101318.384184
101318.199021
101318.008458
101317.812498
101317.611143
101317.404396
101317.192257
101316.974731
101316.751819
101316.523524
101316.289848
101316.050793
101315.806363
101315.556559
101315.301384
101315.040841
101314.774931
101321.39801
101321.37384
101321.34095
101321.294794
101321.251074
101321.201823
101321.147076
101321.086846
101321.021138
101320.949959
101320.873315
101320.79121
101320.70365
101320.61064
101320.512184
101320.408288
101320.298955
101320.184188
101320.063991
101319.938367
101319.807319
101319.67085
101319.528961
101319.381655
101319.228934
101319.070801
101318.907258
101318.738306
101318.563948
101318.384186
101318.199023
101318.00846
101317.8125
101317.611145
101317.404397
101317.192258
101316.974732
101316.75182
101316.523524
101316.289848
101316.050794
101315.806363
101315.556559
101315.301384
101315.040841
101314.774931
101321.372727
101321.340583
101321.304561
101321.251142
101321.201859
101321.147107
101321.086876
101321.021169
101320.94999
101320.873345